 Gaussian 16, Revision A.03,
 Gaussian 16:  ES64L-G16RevA.03 25-Dec-2016

 ----------------------------------------------------------------------
 #b3lyp/gen SCRF=solvent=pyridine EmpiricalDispersion=GD3BJ NMR=(readat
 oms,mixed)
 ----------------------------------------------------------------------

 -------------------
 NMR incl J-coupling
 -------------------
 Symbolic Z-matrix:
 Charge =  0 Multiplicity = 1

 SCF Done:  E(RB3LYP) =  -449.329409364     A.U. after    9 cycles
 Normal termination of Gaussian 16 at Mon Aug  6 01:43:21 2018.

 ----------------------------------------------------------------------
 #N Geom=AllCheck Guess=TCheck SCRF=Check GenChk RB3LYP/ChkBas NMR=Read
 FC IOp(3/6=22)
 ----------------------------------------------------------------------

 Structure from the checkpoint file:  "TMS_PyridineSCRF_NMR.chk"
 -------------------
 NMR incl J-coupling
 -------------------
 Charge =  0 Multiplicity = 1

                         Standard orientation:
 ---------------------------------------------------------------------
 Center     Atomic      Atomic             Coordinates (Angstroms)
 Number     Number       Type             X           Y           Z
 ---------------------------------------------------------------------
      1         14           0        0.000000    0.000000    0.000000
      2          6           0        1.089205    1.089205    1.089205
      3          1           0        0.484494    1.734066    1.734066
      4          1           0        1.734066    0.484494    1.734066
      5          1           0        1.734066    1.734066    0.484494
      6          6           0       -1.089205   -1.089205    1.089205
      7          1           0       -1.734066   -0.484494    1.734066
      8          1           0       -1.734066   -1.734066    0.484494
      9          1           0       -0.484494   -1.734066    1.734066
     10          6           0       -1.089205    1.089205   -1.089205
     11          1           0       -0.484494    1.734066   -1.734066
     12          1           0       -1.734066    0.484494   -1.734066
     13          1           0       -1.734066    1.734066   -0.484494
     14          6           0        1.089205   -1.089205   -1.089205
     15          1           0        1.734066   -1.734066   -0.484494
     16          1           0        0.484494   -1.734066   -1.734066
     17          1           0        1.734066   -0.484494   -1.734066
 ---------------------------------------------------------------------

 SCF Done:  E(RB3LYP) =  -449.326579258     A.U. after    6 cycles

      1  Si   Isotropic =   329.8622   Anisotropy =     0.0000

      2  C    Isotropic =   181.1122   Anisotropy =     9.3777

      3  H    Isotropic =    31.7726   Anisotropy =     8.9871

      4  H    Isotropic =    31.7726   Anisotropy =     8.9871

      5  H    Isotropic =    31.7726   Anisotropy =     8.9871

      6  C    Isotropic =   181.1122   Anisotropy =     9.3777

      7  H    Isotropic =    31.7726   Anisotropy =     8.9871

      8  H    Isotropic =    31.7726   Anisotropy =     8.9871

      9  H    Isotropic =    31.7726   Anisotropy =     8.9871

     10  C    Isotropic =   181.1122   Anisotropy =     9.3777

     11  H    Isotropic =    31.7726   Anisotropy =     8.9871

     12  H    Isotropic =    31.7726   Anisotropy =     8.9871

     13  H    Isotropic =    31.7726   Anisotropy =     8.9871

     14  C    Isotropic =   181.1122   Anisotropy =     9.3777

     15  H    Isotropic =    31.7726   Anisotropy =     8.9871

     16  H    Isotropic =    31.7726   Anisotropy =     8.9871

     17  H    Isotropic =    31.7726   Anisotropy =     8.9871

 The electronic state is 1-A1.
 Alpha  occ. eigenvalues --  -66.07681 -10.14249 -10.14249 -10.14249 -10.14248
 Alpha  occ. eigenvalues --   -5.24592  -3.60410  -3.60410  -3.60410  -0.71765
 Alpha  occ. eigenvalues --   -0.67470  -0.67470  -0.67470  -0.45557  -0.41164
 Alpha  occ. eigenvalues --   -0.41164  -0.41164  -0.39669  -0.39669  -0.37877
 Alpha  occ. eigenvalues --   -0.37877  -0.37877  -0.29624  -0.29624  -0.29624
 Alpha virt. eigenvalues --    0.01112   0.04930   0.04930   0.04930   0.07575
 Alpha virt. eigenvalues --    0.07575   0.07575   0.10137   0.11520   0.11520
 Alpha virt. eigenvalues --    0.11988   0.11988   0.12981   0.12981   0.12981

 Mulliken charges:
               1
     1  Si   0.998631
     2  C   -0.646666
     3  H    0.132336
     4  H    0.132336
     5  H    0.132336
     6  C   -0.646666
     7  H    0.132336
     8  H    0.132336
     9  H    0.132336
    10  C   -0.646666
    11  H    0.132336
    12  H    0.132336
    13  H    0.132336
    14  C   -0.646666
    15  H    0.132336
    16  H    0.132336
    17  H    0.132336
 Sum of Mulliken charges =  -0.00000

 Dipole moment (field-independent basis, Debye):
    X=             -0.0000    Y=             -0.0000    Z=              0.0000  Tot=              0.0000
 Quadrupole moment (field-independent basis, Debye-Ang):
   XX=            -43.0720   YY=            -43.0720   ZZ=            -43.0720
   XY=              0.0000   XZ=             -0.0000   YZ=              0.0000

 Normal termination of Gaussian 16 at Mon Aug  6 01:46:18 2018.
